120
Lattice="-2.8932892953255796e-16 4.7251 2.8932892953255796e-16 9.436338141072493 -0.0 -1.728827940351648 -9.436338141072493 -0.0 -25.599172059648353" Properties=species:S:1:pos:R:3 energy=-142.848655 mobility=0.240002374779 category=gamma nHB=1 nHB_class=nHB=1 molecule=1 pbc="T T T"
H       -2.16986738       1.10075706     -24.81509680
H        2.16986738       3.46330706     -16.17690320
H        2.16986738       3.62434294      -2.51290320
H       -2.16986738       1.26179294     -11.15109680
H       -3.75200994       2.78236809     -25.70075684
H        3.75200994       0.41981809     -15.29124316
H        3.75200994       1.94273191      -1.62724316
H       -3.75200994       4.30528191     -12.03675684
H        0.06370962       0.88654358     -25.46427324
H       -0.06370962       3.24909358     -15.52772676
H       -0.06370962       3.83855642      -1.86372676
H        0.06370962       1.47600642     -11.80027324
H       -5.93071460       4.60559723     -26.11989810
H       -3.50562354       2.24304723     -13.14327396
H        5.93071460       0.11950277      -1.20810190
H        3.50562354       2.48205277     -14.18472604
H       -8.03677355       1.19489119     -25.79678148
H       -1.39956459       3.55744119     -13.46639058
H        8.03677355       3.53020881      -1.53121852
H        1.39956459       1.16765881     -13.86160942
H       -1.62756751       2.10526619     -19.40070644
H        1.62756751       4.46781619     -21.59129356
H        1.62756751       2.61983381      -7.92729356
H       -1.62756751       0.25728381      -5.73670644
H       -0.17264894       2.28706046     -21.39538559
H        0.17264894       4.64961046     -19.59661441
H        0.17264894       2.43803954      -5.93261441
H       -0.17264894       0.07548954      -7.73138559
H       -0.78663559       3.86342855     -23.24066978
H        0.78663559       1.50087855     -17.75133022
H        0.78663559       0.86167145      -4.08733022
H       -0.78663559       3.22422145      -9.57666978
H       -5.11064378       0.43709664     -20.30184515
H       -4.32569436       2.79964664     -18.96132691
H        5.11064378       4.28800336      -7.02615485
H        4.32569436       1.92545336      -8.36667309
H       -6.93128090       2.37211936     -21.32088575
H       -2.50505724       0.00956936     -17.94228631
H        6.93128090       2.35298064      -6.00711425
H        2.50505724       4.71553064      -9.38571369
C       -4.42937667       1.13161180     -22.22640474
C       -5.00696147       3.49416180     -17.03676732
C        4.42937667       3.59348820      -5.10159526
C        5.00696147       1.23093820     -10.29123268
C       -3.28796657       0.78113054     -22.98974070
C        3.28796657       3.14368054     -18.00225930
C        3.28796657       3.94396946      -4.33825930
C       -3.28796657       1.58141946      -9.32574070
C       -3.04714227       1.37902765     -24.24286357
C        3.04714227       3.74157765     -16.74913643
C        3.04714227       3.34607235      -3.08513643
C       -3.04714227       0.98352235     -10.57886357
C       -3.93133383       2.31877202     -24.73776261
C        3.93133383       4.68132202     -16.25423739
C        3.93133383       2.40632798      -2.59023739
C       -3.93133383       0.04377798     -11.07376261
C       -5.32140330       2.07968975     -22.72569935
C       -4.11493484       4.44223975     -16.53747271
C        5.32140330       2.64541025      -4.60230065
C        4.11493484       0.28286025     -10.79052729
C       -5.06957608       2.67472602     -23.98702212
C       -4.36676207       0.31217602     -15.27614994
C        5.06957608       2.05037398      -3.34097788
C        4.36676207       4.41292398     -12.05185006
C       -7.01668649       3.51938983     -23.08600347
C       -2.41965165       1.15683983     -16.17716859
C        7.01668649       1.20571017      -4.24199653
C        2.41965165       3.56826017     -11.15083141
C       -6.15797313       3.59785719     -24.21642831
C       -3.27836501       1.23530719     -15.04674375
C        6.15797313       1.12724281      -3.11157169
C        3.27836501       3.48979281     -12.28125625
C       -3.31887147       4.31429747     -21.01618781
C       -6.11746667       1.95174747     -18.24698425
C        3.31887147       0.41080253      -6.31181219
C        6.11746667       2.77335253      -9.08101575
C       -2.57695216       4.51686244     -22.21192860
C        2.57695216       2.15431244     -18.78007140
C        2.57695216       0.20823756      -5.11607140
C       -2.57695216       2.57078756      -8.54792860
C       -8.45870260       0.31803245     -23.87870346
C       -0.97763554       2.68058245     -15.38446860
C        8.45870260       4.40706755      -3.44929654
C        0.97763554       2.04451755     -11.94353140
C       -6.53016789       4.48533705     -25.22432587
C       -2.90617025       2.12278705     -14.03884619
C        6.53016789       0.23976295      -2.10367413
C        2.90617025       2.60231295     -13.28915381
C       -7.70163580       0.49137276     -25.04463082
C       -1.73470234       2.85392276     -14.21854124
C        7.70163580       4.23372724      -2.28336918
C        1.73470234       1.87117724     -13.10945876
C       -1.89099218       2.78801821     -20.20285440
C        1.89099218       0.42546821     -20.78914560
C        1.89099218       1.93708179      -7.12514560
C       -1.89099218       4.29963179      -6.53885440
C       -1.06874011       2.89206511     -21.33227556
C        1.06874011       0.52951511     -19.65972444
C        1.06874011       1.83303489      -5.99572444
C       -1.06874011       4.19558489      -7.66827556
C       -1.41032445       3.76892559     -22.35866093
C        1.41032445       1.40637559     -18.63333907
C        1.41032445       0.95617441      -4.96933907
C       -1.41032445       3.31872441      -8.69466093
N       -6.49574126       2.59939035     -22.19896961
N       -2.94059688       0.23684035     -17.06420245
N        6.49574126       2.12570965      -5.12903039
N        2.94059688       4.48825965     -10.26379755
N       -4.43144193       0.40536272     -21.04349172
N       -5.00489622       2.76791272     -18.21968034
N        4.43144193       4.31973728      -6.28450828
N        5.00489622       1.95718728      -9.10831966
N       -8.13502257       4.20209803     -22.88964244
N       -1.30131557       1.83954803     -16.37352962
N        8.13502257       0.52300197      -4.43835756
N        1.30131557       2.88555197     -10.95447038
N       -3.01739894       3.48808656     -20.02528625
N       -6.41893920       1.12553656     -19.23788581
N        3.01739894       1.23701344      -7.30271375
N        6.41893920       3.59956344      -8.09011419
60
Lattice="4.89491669123688 0.0 -0.8200752630883082 -0.7282495247871702 10.953070798587815 -0.31152490704143976 0.0 0.0 11.3396969" Properties=species:S:1:pos:R:3 energy=-140.236886 mobility=0.746396686723 category=sheet nHB=1 nHB_class=nHB=1 molecule=1 pbc="T T T"
H        2.07686085       2.57136557       3.45186336
H        2.08980632       8.38170523       6.75623337
H        3.44268091       0.65062829       4.20068991
H        0.72398626      10.30244251       6.00740682
H        2.50309452       5.03792362       3.33794534
H        1.66357265       5.91514718       6.87015139
H        3.80232777       8.99908623       4.41744239
H        0.36433940       1.95398457       5.79065434
H        4.13253329       6.51803804       4.47055330
H        0.03413387       4.43503276       5.73754343
H        1.44098877       3.48739608      10.50388538
H        2.72567840       7.46567472      -0.29578865
H        2.96763555       5.11205422       0.24043875
H        1.19903161       5.84101657       9.96765798
H        0.09018423       4.29096286       2.29450038
H        4.07648294       6.66210794       7.91359635
H        2.68083238      10.26484522      -0.15761742
H        1.48583478       0.68822558      10.36571415
H        4.25241396       8.05457873       0.70400943
H       -0.08574679       2.89849207       9.50408730
C        0.21022997       0.02258162       2.10026176
C        3.95643719      10.93048918       8.10783497
C        0.61394270       1.33756655       2.44103214
C        3.55272447       9.61550425       7.76706459
C        1.78089398       1.55995442       3.19903475
C        2.38577318       9.39311638       7.00906198
C        2.54413401       0.48653935       3.61748501
C        1.62253316      10.46653145       6.59061172
C        0.25199389       9.89272504       2.21090132
C        3.91467327       1.06034575       7.99719541
C        1.42367015      10.12774684       2.97271785
C        2.74299701       0.82532396       7.23537888
C        1.13234440       7.86431403       2.64342603
C        3.03432277       3.08875676       7.56467070
C        1.98697219       8.82557283       3.24920205
C        2.17969497       2.12749797       6.95889468
C        3.56345423       1.40042064       0.38480815
C        0.60321294       9.55265016       9.82328858
C        4.51884417       2.21989380       1.04582287
C       -0.35217700       8.73317700       9.16227386
C        2.36281492       6.11442351       3.31680888
C        1.80385225       4.83864729       6.89128785
C        3.10028842       8.33341390       3.92768695
C        1.06637874       2.61965690       6.28040978
C        3.28399473       6.95336127       3.95725068
C        0.88267243       3.99970953       6.25084605
C        2.31691031       3.13458803      -0.29981875
C        1.84975685       7.81848277      10.50791548
C        3.18180175       4.05266259       0.30976100
C        0.98486542       6.90040821       9.89833573
C        4.30397985       3.59586861       0.99613835
C       -0.13731269       7.35720219       9.21195838
N        0.09282396       8.52676649       2.02278632
N        4.07384321       2.42630431       8.18531041
N        3.93402311       0.07977176       0.53725924
N        0.23264405      10.87329904       9.67083749
N        1.28313692       6.54810509       2.65605827
N        2.88353025       4.40496570       7.55203846
N        2.48881066       1.80786140      -0.27439819
N        1.67785651       9.14520940      10.48249492
120
Lattice="3.045512892459595e-16 -4.9737 -3.045512892459595e-16 -11.524298762266923 0.0 2.7873825711611726 0.0 0.0 -20.8167" Properties=species:S:1:pos:R:3 energy=-139.89896 mobility=0.977562413595 category=gamma nHB=1 nHB_class=nHB=1 molecule=1 pbc="T T T"
H      -11.34147264      -2.71314493      -8.71160248
H       -0.18282612      -0.22629493     -19.72606494
H       -0.18282612      -2.26055507      -9.31771494
H      -11.34147264      -4.74740507       1.69674752
H      -11.36576419      -0.98338436     -10.47872265
H       -0.15853457      -3.47023436     -17.95894478
H       -0.15853457      -3.99031564      -7.55059478
H      -11.36576419      -1.50346564      -0.07037265
H       -7.11701414      -3.51932578     -14.89051525
H       -4.40728462      -1.03247578     -13.54715218
H       -4.40728462      -1.45437422      -3.13880218
H       -7.11701414      -3.94122422      -4.48216525
H      -10.72036306      -4.15564684     -12.61994930
H       -0.80393570      -1.66879684     -15.81771813
H       -0.80393570      -0.81805316      -5.40936813
H      -10.72036306      -3.30490316      -2.21159930
H       -9.47884601      -2.94246995     -14.42392621
H       -2.04545275      -0.45561995     -14.01374121
H       -2.04545275      -2.03123005      -3.60539121
H       -9.47884601      -4.51808005      -4.01557621
H       -6.99880818      -2.03901727      -6.24023698
H       -4.52549058      -4.52586727      -1.38073045
H       -4.52549058      -2.93468273     -11.78908045
H       -6.99880818      -0.44783273     -16.64858698
H       -9.35880457      -1.59233919      -5.64066169
H       -2.16549419      -4.07918919      -1.98030574
H       -2.16549419      -3.38136081     -12.38865574
H       -9.35880457      -0.89451081     -16.04901169
H      -10.64168165      -4.80572696      -6.87457381
H       -0.88261712      -2.31887696      -0.74639362
H       -0.88261712      -0.16797304     -11.15474362
H      -10.64168165      -2.65482304     -17.28292381
H       -6.16296675      -3.96519521      -9.74774442
H       -5.36133201      -1.47834521     -18.68992301
H       -5.36133201      -1.00850479      -8.28157301
H       -6.16296675      -3.49535479       0.66060558
H       -6.19081299      -1.97477883     -11.78119723
H       -5.33348577      -4.46162883     -16.65647020
H       -5.33348577      -2.99892117      -6.24812020
H       -6.19081299      -0.51207117      -1.37284723
C       -8.10809383      -3.03763180      -9.82858447
C       -3.41620493      -0.55078180     -18.60908296
C       -3.41620493      -1.93606820      -8.20073296
C       -8.10809383      -4.42291820       0.57976553
C       -9.27980319      -3.26851986      -9.06561617
C       -2.24449557      -0.78166986     -19.37205126
C       -2.24449557      -1.70518014      -8.96370126
C       -9.27980319      -4.19203014       1.34273383
C      -10.45317211      -2.52520093      -9.30328896
C       -1.07112665      -0.03835093     -19.13437847
C       -1.07112665      -2.44849907      -8.72602847
C      -10.45317211      -4.93534907       1.10506104
C      -10.46669768      -1.55855446     -10.29083557
C       -1.05760108      -4.04540446     -18.14683186
C       -1.05760108      -3.41514554      -7.73848186
C      -10.46669768      -0.92829554       0.11751443
C       -8.12174772      -2.06241215     -10.82488532
C       -3.40255104      -4.54926215     -17.61278211
C       -3.40255104      -2.91128785      -7.20443211
C       -8.12174772      -0.42443785      -0.41653532
C       -9.30712536      -1.32070866     -11.05551074
C       -2.21717340      -3.80755866     -17.38215669
C       -2.21717340      -3.65299134      -6.97380669
C       -9.30712536      -1.16614134      -0.64716074
C       -7.64852474      -0.63590857     -12.50347740
C       -3.87577402      -3.12275857     -15.93419003
C       -3.87577402      -4.33779143      -5.52584003
C       -7.64852474      -1.85094143      -2.09512740
C       -9.00168534      -0.40626056     -12.13249301
C       -2.52261342      -2.89311056     -16.30517442
C       -2.52261342      -4.56743944      -5.89682442
C       -9.00168534      -2.08058944      -1.72414301
C       -7.59189216      -4.67861832      -8.37339004
C       -3.93240661      -2.19176832       0.75242261
C       -3.93240661      -0.29508168      -9.65592739
C       -7.59189216      -2.78193168     -18.78174004
C       -8.94679201      -4.32132527      -8.13283101
C       -2.57750675      -1.83447527       0.51186359
C       -2.57750675      -0.65237473      -9.89648641
C       -8.94679201      -3.13922473     -18.54118101
C       -7.65835181      -4.04357887     -14.10878823
C       -3.86594696      -1.55672887     -14.32887920
C       -3.86594696      -0.93012113      -3.92052920
C       -7.65835181      -3.41697113      -3.70043823
C       -9.68547425      -4.39315826     -12.84007172
C       -1.83882451      -1.90630826     -15.59759571
C       -1.83882451      -0.58054174      -5.18924571
C       -9.68547425      -3.06739174      -2.43172172
C       -8.99492536      -3.71831948     -13.84352305
C       -2.52937340      -1.23146948     -14.59414438
C       -2.52937340      -1.25538052      -4.18579438
C       -8.99492536      -3.74223052      -3.43517305
C       -7.55807284      -1.27619613      -6.77344814
C       -3.96622592      -3.76304613      -0.84751929
C       -3.96622592      -3.69750387     -11.25586929
C       -7.55807284      -1.21065387     -17.18179814
C       -8.89363275      -1.02221571      -6.43537067
C       -2.63066601      -3.50906571      -1.18559676
C       -2.63066601      -3.95148429     -11.59394676
C       -8.89363275      -1.46463429     -16.84372067
C       -9.60716218      -0.04304388      -7.12176424
C       -1.91713658      -2.52989388      -0.49920319
C       -1.91713658      -4.93065612     -10.90755319
C       -9.60716218      -2.44380612     -17.53011424
N       -7.13557162      -1.63729120     -11.70427362
N       -4.38872714      -4.12414120     -16.73339381
N       -4.38872714      -3.33640880      -6.32504381
N       -7.13557162      -0.84955880      -1.29592362
N       -7.10395053      -3.89413231      -9.39865669
N       -4.42034823      -1.40728231     -19.03901073
N       -4.42034823      -1.07956769      -8.63066073
N       -7.10395053      -3.56641769       1.00969331
N       -6.96825076      -0.00967500     -13.45235865
N       -4.55604800      -2.49652500     -14.98530878
N       -4.55604800      -4.96402500      -4.57695878
N       -6.96825076      -2.47717500      -3.04400865
N       -6.89002907      -0.63078579      -7.73655461
N       -4.63426970      -3.11763579       0.11558718
N       -4.63426970      -4.34291421     -10.29276282
N       -6.89002907      -1.85606421     -18.14490461
120
Lattice="2.9736261253496457e-16 -4.8563 -2.9736261253496457e-16 -10.503009730402777 0.0 -2.6160271048031203 10.503009730402777 0.0 -21.13357289519688" Properties=species:S:1:pos:R:3 energy=-139.721871 mobility=0.39443631966 category=gamma nHB=1 nHB_class=nHB=1 molecule=1 pbc="T T T"
H       -4.11616113      -4.74726067     -12.76368624
H       -6.38684860      -2.31911067      -1.72714086
H        4.11616113      -0.10903933     -10.98591376
H        6.38684860      -2.53718933     -22.02245914
H       -2.35149522      -1.56656196     -12.32342798
H       -8.15151451      -3.99471196      -2.16739912
H        2.35149522      -3.28973804     -11.42617202
H        8.15151451      -0.86158804     -21.58220088
H        0.76797020      -4.00410837      -7.05218268
H       -0.76797020      -1.57595837      -4.82261732
H       -0.76797020      -0.85219163     -16.69741732
H        0.76797020      -3.28034163     -18.92698268
H       -0.41465662      -3.32351531     -11.13663021
H      -10.08835311      -0.89536531      -3.35419689
H        0.41465662      -1.53278469     -12.61296979
H       10.08835311      -3.96093469     -20.39540311
H        1.00886555      -4.52107354      -9.46122001
H       -1.00886555      -2.09292354      -2.41357999
H       -1.00886555      -0.33522646     -14.28837999
H        1.00886555      -2.76337646     -21.33602001
H        2.63292546      -0.65841108      -6.59195801
H       -2.63292546      -3.08656108      -5.28284199
H       -2.63292546      -4.19788892     -17.15764199
H        2.63292546      -1.76973892     -18.46675801
H        2.74101719      -1.04927461      -9.03412054
H       -2.74101719      -3.47742461      -2.84067946
H       -2.74101719      -3.80702539     -14.71547946
H        2.74101719      -1.37887539     -20.90892054
H        4.35104571      -2.73211189      -9.95228739
H       -4.35104571      -0.30396189      -1.92251261
H       -4.35104571      -2.12418811     -13.79731261
H        4.35104571      -4.55233811     -21.82708739
H       -4.63130739      -3.62612909      -7.47823815
H       -5.87170234      -1.19797909      -7.01258896
H        4.63130739      -1.23017091     -16.27136185
H        5.87170234      -3.65832091     -16.73701104
H       -2.60071021      -0.69792699      -6.97152315
H       -7.90229952      -3.12607699      -7.51930395
H        2.60071021      -4.15837301     -16.77807685
H        7.90229952      -1.73022301     -16.23029605
C       -3.97036066      -4.49031418      -9.34017610
C       -6.53264907      -2.06216418      -5.15065100
C        3.97036066      -0.36598582     -14.40942390
C        6.53264907      -2.79413582     -18.59894900
C       -4.37942579      -4.24577475     -10.67479301
C       -6.12358394      -1.81762475      -3.81603409
C        4.37942579      -0.61052525     -13.07480699
C        6.12358394      -3.03867525     -19.93356591
C       -3.79284981      -0.08885329     -11.74840108
C       -6.71015992      -2.51700329      -2.74242602
C        3.79284981      -4.76744671     -12.00119892
C        6.71015992      -2.33929671     -21.00717398
C       -2.80668978      -1.02523472     -11.50231656
C       -7.69631995      -3.45338472      -2.98851055
C        2.80668978      -3.83106528     -12.24728344
C        7.69631995      -1.40291528     -20.76108945
C       -2.97545571      -0.57870021      -9.09191844
C       -7.52755402      -3.00685021      -5.39890867
C        2.97545571      -4.27759979     -14.65768156
C        7.52755402      -1.84944979     -18.35069133
C       -2.39230445      -1.27630008     -10.17900195
C       -8.11070528      -3.70445008      -4.31182515
C        2.39230445      -3.57999992     -13.57059805
C        8.11070528      -1.15184992     -19.43777485
C       -1.44732188      -1.96930551      -8.19323070
C        1.44732188      -4.39745551      -3.68156930
C        1.44732188      -2.88699449     -15.55636930
C       -1.44732188      -0.45884449     -20.06803070
C       -1.41239948      -2.16777292      -9.60064271
C       -9.09061025      -4.59592292      -4.89018439
C        1.41239948      -2.68852708     -14.14895729
C        9.09061025      -0.26037708     -18.85941561
C       -5.57163135      -2.90947144      -9.22233282
C       -4.93137838      -0.48132144      -5.26849428
C        5.57163135      -1.94682856     -14.52726718
C        4.93137838      -4.37497856     -18.48110572
C       -5.40648013      -3.23158827     -10.59719897
C       -5.09652960      -0.80343827      -3.89362814
C        5.40648013      -1.62471173     -13.15240103
C        5.09652960      -4.05286173     -19.85597186
C        0.15210574      -3.48651862      -7.78143485
C       -0.15210574      -1.05836862      -4.09336515
C       -0.15210574      -1.36978138     -15.96816515
C        0.15210574      -3.79793138     -19.65623485
C       -0.50462015      -3.11177261     -10.07694332
C        0.50462015      -0.68362261      -1.79785668
C        0.50462015      -1.74452739     -13.67265668
C       -0.50462015      -4.17267739     -21.95174332
C        0.28721677      -3.77792241      -9.14504265
C       -0.28721677      -1.34977241      -2.72975735
C       -0.28721677      -1.07837759     -14.60455735
C        0.28721677      -3.50652759     -21.01984265
C        3.33012911      -1.38759963      -6.99346456
C       -3.33012911      -3.81574963      -4.88133544
C       -3.33012911      -3.46870037     -16.75613544
C        3.33012911      -1.04055037     -18.86826456
C        3.39252476      -1.60995640      -8.37520026
C       -3.39252476      -4.03810640      -3.49959974
C       -3.39252476      -3.24634360     -15.37439974
C        3.39252476      -0.81819360     -20.25000026
C        4.28811168      -2.54603411      -8.88585390
C       -4.28811168      -0.11788411      -2.98894610
C       -4.28811168      -2.31026589     -14.86374610
C        4.28811168      -4.73841589     -20.76065390
N       -2.39523511      -1.00814234      -7.90636937
N       -8.10777462      -3.43629234      -6.58445774
N        2.39523511      -3.84815766     -15.84323063
N        8.10777462      -1.42000766     -17.16514226
N       -4.69762833      -3.67826224      -8.48085865
N       -5.80538140      -1.25011224      -6.00996845
N        4.69762833      -1.17803776     -15.26874135
N        5.80538140      -3.60618776     -17.73963155
N       -0.70668913      -2.58817718      -7.28559914
N        0.70668913      -0.16002718      -4.58920086
N        0.70668913      -2.26812282     -16.46400086
N       -0.70668913      -4.69627282     -19.16039914
N       -6.41445051      -2.02483511      -8.70996726
N       -4.08855922      -4.45298511      -5.78085984
N        6.41445051      -2.83146489     -15.03963274
N        4.08855922      -0.40331489     -17.96874016
60
Lattice="4.38960465085887 0.0 -0.5849107597274426 -1.8114568253750325 8.126027880685522 -1.5174040227673884 0.0 0.0 16.7500158" Properties=species:S:1:pos:R:3 energy=-138.593304 mobility=1.47248460647 category=sheet nHB=1 nHB_class=nHB=1 molecule=1 pbc="T T T"
H        2.02422828       5.90416968       1.10097143
H        0.55391955       2.22185820      13.54672959
H       -1.50936400       7.31468845      -0.15614847
H        4.08751183       0.81133943      14.80384949
H        0.07120400       4.26237263       1.29850852
H        2.50694383       3.86365525      13.34919250
H        1.65590075       1.14086230      -0.25200470
H        0.92224708       6.98516558      14.89970572
H        3.12381228       3.03691708      -0.97140826
H       -0.54566445       5.08911080      15.61910927
H        2.84833680       5.48347766       7.62761435
H       -0.27018897       2.64255022       7.02008667
H        1.44692396       4.15187498       6.08123847
H        1.13122387       3.97415290       8.56646254
H        1.45078653       4.68081317       3.63433909
H        1.12736130       3.44521471      11.01336193
H        2.38398674       0.47557944       6.88429860
H        0.19416109       7.65044844       7.76340242
H        3.36906331       2.09872377       4.76474198
H       -0.79091548       6.02730411       9.88295904
C       -0.30027409       7.96591482       3.50021717
C        2.87842192       0.16011306      11.14748385
C       -1.22444879       6.93109394       3.21160694
C        3.80259662       1.19493394      11.43609408
C        2.73137709       6.69934360       1.30611664
C       -0.15322927       1.42668428      13.34158438
C       -1.17982607       7.48762291       0.86166297
C        3.75797390       0.63840497      13.78603804
C        1.99382137       0.63515139       3.97912354
C        0.58432646       7.49087650      10.66857748
C        1.55094974       0.39341522       2.65479131
C        1.02719808       7.73261266      11.99290971
C        3.03976965       2.15376940       2.68441387
C       -0.46162183       5.97225848      11.96328715
C        2.22288281       1.36841424       1.82577666
C        0.35526501       6.75761364      12.82192436
C       -0.77241290       6.98310247       5.47204880
C        3.35056073       1.14292542       9.17565221
C        2.86350941       6.30187252       3.89259488
C       -0.28536159       1.82415536      10.75510614
C       -0.56646308       3.43954023       1.60718553
C        3.14461091       4.68648766      13.04051549
C        2.24942985       1.69041297       0.47017479
C        0.32871798       6.43561491      14.17752623
C        3.06592923       2.74506851       0.06997644
C       -0.48778140       5.38095937      14.57772458
C        2.84771013       5.71028534       6.56574655
C       -0.26956231       2.41574254       8.08195447
C        2.05523243       4.95769904       5.68935942
C        0.52291540       3.16832884       8.95834160
C        2.05742920       5.25197070       4.32830591
C        0.52071863       2.87405718      10.31939511
N        2.88810589       1.69664774       3.97773623
N       -0.30995807       6.42938014      10.66996479
N       -0.04025112       7.98230136       4.86362112
N        2.61839894       0.14372652       9.78407989
N       -0.56494198       3.16089580       2.91590150
N        3.14308981       4.96513208      11.73179951
N       -0.75575645       6.72443141       6.77137165
N        3.33390428       1.40159647       7.87632936
120
Lattice="3.374575487390489e-16 -5.5111 -3.374575487390489e-16 -9.047694573194342 0.0 -3.05235885835687 9.047694573194342 0.0 -21.93284114164313" Properties=species:S:1:pos:R:3 energy=-138.491902 mobility=0.960259188751 category=gamma nHB=1 nHB_class=nHB=1 molecule=1 pbc="T T T"
H       -5.18920733      -1.67151685      -1.77441932
H       -3.85848725      -4.42706685     -13.77053954
H        5.18920733      -3.83958315     -23.21078068
H        3.85848725      -1.08403315     -11.21466046
H       -4.88788761      -2.81463930      -3.94648780
H       -4.15980696      -0.05908930     -11.59847106
H        4.88788761      -2.69646070     -21.03871220
H        4.15980696      -5.45201070     -13.38672894
H        1.92254073      -2.11538614      -7.05563023
H       -1.92254073      -4.87093614      -5.43696977
H       -1.92254073      -3.39571386     -17.92956977
H        1.92254073      -0.64016386     -19.54823023
H       -4.99092837      -3.64335162      -6.69407202
H       -4.05676621      -0.88780162      -8.85088684
H        4.99092837      -1.86774838     -18.29112798
H        4.05676621      -4.62329838     -16.13431316
H       -5.56179989      -3.76621729      -9.12851483
H       -3.48589468      -1.01066729      -6.41644403
H        5.56179989      -1.74488271     -15.85668517
H        3.48589468      -4.50043271     -18.56875597
H        0.44803080      -2.03133640     -21.40815649
H       -0.44803080      -4.78688640     -16.06964351
H       -0.44803080      -3.47976360      -3.57704351
H        0.44803080      -0.72421360      -8.91555649
H        1.98870371      -3.59613494     -20.26522234
H       -1.98870371      -0.84058494     -17.21257766
H       -1.98870371      -1.91496506      -4.71997766
H        1.98870371      -4.67051506      -7.77262234
H        3.07730224      -5.43810278     -21.56489190
H       -3.07730224      -2.68255278     -15.91290810
H       -3.07730224      -0.07299722      -3.42030810
H        3.07730224      -2.82854722      -9.07229190
H       -8.61487621      -3.57136772      -3.93813845
H       -0.43281837      -0.81581772     -11.60682041
H        8.61487621      -1.93973228     -21.04706155
H        0.43281837      -4.69528228     -13.37837959
H        0.77947789      -4.88668917      -3.38523136
H       -0.77947789      -2.13113917      -9.10736864
H       -0.77947789      -0.62441083     -21.59996864
H        0.77947789      -3.37996083     -15.87783136
C       -7.25247698      -5.22653716      -3.70426142
C       -1.79521759      -2.47098716     -11.84069744
C        7.25247698      -0.28456284     -21.28093858
C        1.79521759      -3.04011284     -13.14450256
C       -6.56245284      -0.19662756      -2.56380210