3
Properties=species:S:1:pos:R:3:force:R:3 OH1=0.7 OH2=1.2000000000000002 HOH=60.0 dipole="-0.00853353280466379 0.49287235586343126 0.0" energy=0.214096502 pbc="F F F"
O        0.00000000       0.00000000       0.00000000       0.43933300      -0.48691900       0.00000000
H       -0.35000000       0.60621778       0.00000000      -0.46667200       0.57541600       0.00000000
H        0.60000000       1.03923048       0.00000000       0.02733870      -0.08849680       0.00000000
3
Properties=species:S:1:pos:R:3:force:R:3 OH1=0.7 OH2=1.2 HOH=70.0 dipole="0.009399308427501696 0.4741224750490594 0.0" energy=0.191160388 pbc="F F F"
O        0.00000000       0.00000000       0.00000000       0.49188300      -0.45292000       0.00000000
H       -0.40150351       0.57340643       0.00000000      -0.48450000       0.54763800       0.00000000
H        0.68829172       0.98298245       0.00000000      -0.00738253      -0.09471830       0.00000000
3
Properties=species:S:1:pos:R:3:force:R:3 OH1=0.7 OH2=1.2 HOH=80.0 dipole="0.027742324747334873 0.4535247183303239 0.0" energy=0.175453858 pbc="F F F"
O        0.00000000       0.00000000       0.00000000       0.54387700      -0.42579400       0.00000000
H       -0.44995133       0.53623111       0.00000000      -0.50648600       0.51944800       0.00000000
H        0.77134513       0.91925333       0.00000000      -0.03739180      -0.09365390       0.00000000
3
Properties=species:S:1:pos:R:3:force:R:3 OH1=0.7 OH2=1.2 HOH=90.0 dipole="0.0481985807992997 0.43114887936608404 0.0" energy=0.165872172 pbc="F F F"
O        0.00000000       0.00000000       0.00000000       0.59291800      -0.40101900       0.00000000
H       -0.49497475       0.49497475       0.00000000      -0.52966700       0.48836400       0.00000000
H        0.84852814       0.84852814       0.00000000      -0.06325110      -0.08734470       0.00000000
3
Properties=species:S:1:pos:R:3:force:R:3 OH1=0.7 OH2=1.2 HOH=100.0 dipole="0.07120005174996372 0.4059627759534069 0.0" energy=0.161834087 pbc="F F F"
O        0.00000000       0.00000000       0.00000000       0.63781200      -0.37916200       0.00000000
H       -0.53623111       0.44995133       0.00000000      -0.55236000       0.45551400       0.00000000
H        0.91925333       0.77134513       0.00000000      -0.08545150      -0.07635200       0.00000000
3
Properties=species:S:1:pos:R:3:force:R:3 OH1=0.7 OH2=1.2 HOH=110.0 dipole="0.0957495013276963 0.376763488114077 0.0" energy=0.162803229 pbc="F F F"
O        0.00000000       0.00000000       0.00000000       0.67971300      -0.35777800       0.00000000
H       -0.57340643       0.40150351       0.00000000      -0.57624900       0.42037600       0.00000000
H        0.98298245       0.68829172       0.00000000      -0.10346400      -0.06259800       0.00000000
3
Properties=species:S:1:pos:R:3:force:R:3 OH1=0.7 OH2=1.2 HOH=120.0 dipole="0.1210173514030011 0.3428406990576677 0.0" energy=0.167912248 pbc="F F F"
O        0.00000000       0.00000000       0.00000000       0.71808400      -0.33345400       0.00000000
H       -0.60621778       0.35000000       0.00000000      -0.60071000       0.38117700       0.00000000
H        1.03923048       0.60000000       0.00000000      -0.11737400      -0.04772400       0.00000000
3
Properties=species:S:1:pos:R:3:force:R:3 OH1=0.7 OH2=1.1999999999999997 HOH=130.0 dipole="0.14769991484559092 0.3037703386527164 0.0" energy=0.176242915 pbc="F F F"
O        0.00000000       0.00000000       0.00000000       0.75230800      -0.30430900       0.00000000
H       -0.63441545       0.29583278       0.00000000      -0.62452000       0.33712100       0.00000000
H        1.08756934       0.50714191       0.00000000      -0.12778800      -0.03281180       0.00000000
3
Properties=species:S:1:pos:R:3:force:R:3 OH1=0.7 OH2=1.2 HOH=140.0 dipole="0.17736049800615789 0.25869816743740764 0.0" energy=0.186710055 pbc="F F F"
O        0.00000000       0.00000000       0.00000000       0.78302900      -0.26710900       0.00000000
H       -0.65778483       0.23941410       0.00000000      -0.64748800       0.28668200       0.00000000
H        1.12763114       0.41042417       0.00000000      -0.13554100      -0.01957350       0.00000000
3
Properties=species:S:1:pos:R:3:force:R:3 OH1=0.7 OH2=1.2000000000000002 HOH=150.0 dipole="0.2099566577558417 0.2061065793512512 0.0" energy=0.197845976 pbc="F F F"
O        0.00000000       0.00000000       0.00000000       0.80999000      -0.21857700       0.00000000
H       -0.67614808       0.18117333       0.00000000      -0.66852300       0.22798400       0.00000000
H        1.15911099       0.31058285       0.00000000      -0.14146700      -0.00940770       0.00000000
3
Properties=species:S:1:pos:R:3:force:R:3 OH1=0.7 OH2=1.2 HOH=160.0 dipole="0.24170777548176187 0.14469878398478286 0.0" energy=0.207894757 pbc="F F F"
O        0.00000000       0.00000000       0.00000000       0.83172100      -0.15689400       0.00000000
H       -0.68936543       0.12155372       0.00000000      -0.68559000       0.15990200       0.00000000
H        1.18176930       0.20837781       0.00000000      -0.14613100      -0.00300852       0.00000000
3
Properties=species:S:1:pos:R:3:force:R:3 OH1=0.75 OH2=1.15 HOH=60.0 dipole="-0.005186308193823236 0.49481038567054025 0.0" energy=0.151435676 pbc="F F F"
O        0.00000000       0.00000000       0.00000000       0.30650300      -0.28498700       0.00000000
H       -0.37500000       0.64951905       0.00000000      -0.34490000       0.36804800       0.00000000
H        0.57500000       0.99592921       0.00000000       0.03839690      -0.08306150       0.00000000
3
Properties=species:S:1:pos:R:3:force:R:3 OH1=0.75 OH2=1.15 HOH=70.0 dipole="0.008069230004078443 0.4751453818235303 0.0" energy=0.127268861 pbc="F F F"
O        0.00000000       0.00000000       0.00000000       0.34224100      -0.26022800       0.00000000
H       -0.43018233       0.61436403       0.00000000      -0.34447600       0.34977000       0.00000000
H        0.65961290       0.94202485       0.00000000       0.00223546      -0.08954200       0.00000000
3
Properties=species:S:1:pos:R:3:force:R:3 OH1=0.75 OH2=1.15 HOH=80.0 dipole="0.0218254633171171 0.45350250320165075 0.0" energy=0.110624 pbc="F F F"
O        0.00000000       0.00000000       0.00000000       0.37752000      -0.24397000       0.00000000
H       -0.48209071       0.57453333       0.00000000      -0.34900100       0.33241800       0.00000000
H        0.73920575       0.88095111       0.00000000      -0.02851930      -0.08844790       0.00000000
3
Properties=species:S:1:pos:R:3:force:R:3 OH1=0.75 OH2=1.15 HOH=90.0 dipole="0.03779327615820885 0.4301214213672325 0.0" energy=0.10042159 pbc="F F F"
O        0.00000000       0.00000000       0.00000000       0.41097800      -0.23282200       0.00000000
H       -0.53033009       0.53033009       0.00000000      -0.35596700       0.31472800       0.00000000
H        0.81317280       0.81317280       0.00000000      -0.05501170      -0.08190630       0.00000000
3
Properties=species:S:1:pos:R:3:force:R:3 OH1=0.7500000000000001 OH2=1.15 HOH=100.0 dipole="0.0564101034676695 0.4041694845204552 0.0" energy=0.0959957866 pbc="F F F"
O        0.00000000       0.00000000       0.00000000       0.44208900      -0.22564300       0.00000000
H       -0.57453333       0.48209071       0.00000000      -0.36456400       0.29669900       0.00000000
H        0.88095111       0.73920575       0.00000000      -0.07752480      -0.07105560       0.00000000
3
Properties=species:S:1:pos:R:3:force:R:3 OH1=0.75 OH2=1.15 HOH=110.0 dipole="0.0766862709279629 0.3744931794287087 0.0" energy=0.096661104 pbc="F F F"
O        0.00000000       0.00000000       0.00000000       0.47117400      -0.21981600       0.00000000
H       -0.61436403       0.43018233       0.00000000      -0.37551400       0.27738000       0.00000000
H        0.94202485       0.65961290       0.00000000      -0.09566070      -0.05756360       0.00000000
3
Properties=species:S:1:pos:R:3:force:R:3 OH1=0.7500000000000001 OH2=1.15 HOH=120.0 dipole="0.09761553510439824 0.3402500835023711 0.0" energy=0.10155196 pbc="F F F"
O        0.00000000       0.00000000       0.00000000       0.49773800      -0.21242500       0.00000000
H       -0.64951905       0.37500000       0.00000000      -0.38811500       0.25533300       0.00000000
H        0.99592921       0.57500000       0.00000000      -0.10962300      -0.04290780       0.00000000
3
Properties=species:S:1:pos:R:3:force:R:3 OH1=0.7499999999999999 OH2=1.15 HOH=130.0 dipole="0.11945728236953518 0.3008541279325209 0.0" energy=0.109720707 pbc="F F F"
O        0.00000000       0.00000000       0.00000000       0.52165200      -0.20092600       0.00000000
H       -0.67973084       0.31696370       0.00000000      -0.40171300       0.22940800       0.00000000
H        1.04225396       0.48601100       0.00000000      -0.11994000      -0.02848140       0.00000000
3
Properties=species:S:1:pos:R:3:force:R:3 OH1=0.7499999999999999 OH2=1.15 HOH=140.0 dipole="0.1433419488158451 0.25545929122263744 0.0" energy=0.119983656 pbc="F F F"
O        0.00000000       0.00000000       0.00000000       0.54328600      -0.18197200       0.00000000
H       -0.70476947       0.25651511       0.00000000      -0.41591700       0.19795600       0.00000000
H        1.08064651       0.39332316       0.00000000      -0.12736900      -0.01598400       0.00000000
3
Properties=species:S:1:pos:R:3:force:R:3 OH1=0.7500000000000001 OH2=1.15 HOH=150.0 dipole="0.16929901220919547 0.20278787508127272 0.0" energy=0.130848194 pbc="F F F"
O        0.00000000       0.00000000       0.00000000       0.56233400      -0.15281800       0.00000000
H       -0.72444437       0.19411428       0.00000000      -0.42952700       0.15946500       0.00000000
H        1.11081470       0.29764190       0.00000000      -0.13280600      -0.00664625       0.00000000
3
Properties=species:S:1:pos:R:3:force:R:3 OH1=0.7499999999999999 OH2=1.1499999999999997 HOH=160.0 dipole="0.19446211124332707 0.14186130827774796 0.0" energy=0.140601894 pbc="F F F"
O        0.00000000       0.00000000       0.00000000       0.57783400      -0.11184000       0.00000000
H       -0.73860581       0.13023613       0.00000000      -0.44095900       0.11299200       0.00000000
H        1.13252892       0.19969540       0.00000000      -0.13687500      -0.00115256       0.00000000
3
Properties=species:S:1:pos:R:3:force:R:3 OH1=0.7999999999999999 OH2=1.0999999999999999 HOH=60.0 dipole="-0.00273168034605914 0.49538826118632306 0.0" energy=0.109184375 pbc="F F F"
O        0.00000000       0.00000000       0.00000000       0.20596300      -0.14732600       0.00000000
H       -0.40000000       0.69282032       0.00000000      -0.25783400       0.22131400       0.00000000
H        0.55000000       0.95262794       0.00000000       0.05187040      -0.07398820       0.00000000
3
Properties=species:S:1:pos:R:3:force:R:3 OH1=0.7999999999999999 OH2=1.0999999999999999 HOH=70.0 dipole="0.006515153605963414 0.47555297874204644 0.0" energy=0.0839552247 pbc="F F F"
O        0.00000000       0.00000000       0.00000000       0.22936900      -0.12882300       0.00000000
H       -0.45886115       0.65532164       0.00000000      -0.24386700       0.20923700       0.00000000
H        0.63093408       0.90106725       0.00000000       0.01449810      -0.08041470       0.00000000
3
Properties=species:S:1:pos:R:3:force:R:3 OH1=0.7999999999999999 OH2=1.0999999999999999 HOH=80.0 dipole="0.01624249166786934 0.45338590891703834 0.0" energy=0.0665671583 pbc="F F F"
O        0.00000000       0.00000000       0.00000000       0.25245700      -0.11984900       0.00000000
H       -0.51423009       0.61283555       0.00000000      -0.23589000       0.19918400       0.00000000
H        0.70706637       0.84264889       0.00000000      -0.01656690      -0.07933530       0.00000000
3
Properties=species:S:1:pos:R:3:force:R:3 OH1=0.7999999999999999 OH2=1.0999999999999999 HOH=90.0 dipole="0.027952073447419734 0.4293086683410057 0.0" energy=0.0558582522 pbc="F F F"
O        0.00000000       0.00000000       0.00000000       0.27449300      -0.11770900       0.00000000
H       -0.56568542       0.56568542       0.00000000      -0.23138200       0.19053000       0.00000000
H        0.77781746       0.77781746       0.00000000      -0.04311090      -0.07282110       0.00000000
3
Properties=species:S:1:pos:R:3:force:R:3 OH1=0.7999999999999999 OH2=1.0999999999999999 HOH=100.0 dipole="0.04202996940320092 0.40272693238680046 0.0" energy=0.0510833648 pbc="F F F"
O        0.00000000       0.00000000       0.00000000       0.29525300      -0.12042000       0.00000000
H       -0.61283555       0.51423009       0.00000000      -0.22980300       0.18270200       0.00000000
H        0.84264889       0.70706637       0.00000000      -0.06545000      -0.06228290       0.00000000
3
Properties=species:S:1:pos:R:3:force:R:3 OH1=0.8 OH2=1.1 HOH=110.0 dipole="0.05761432082571835 0.3726035349177825 0.0" energy=0.0514876212 pbc="F F F"
O        0.00000000       0.00000000       0.00000000       0.31467300      -0.12527600       0.00000000
H       -0.65532164       0.45886115       0.00000000      -0.23133500       0.17451600       0.00000000
H        0.90106725       0.63093408       0.00000000      -0.08333840      -0.04923910       0.00000000
3
Properties=species:S:1:pos:R:3:force:R:3 OH1=0.7999999999999999 OH2=1.0999999999999999 HOH=120.0 dipole="0.07373573057143035 0.3380418084552105 0.0" energy=0.0562011491 pbc="F F F"
O        0.00000000       0.00000000       0.00000000       0.33242100      -0.12943600       0.00000000
H       -0.69282032       0.40000000       0.00000000      -0.23542700       0.16458800       0.00000000
H        0.95262794       0.55000000       0.00000000      -0.09699380      -0.03515250       0.00000000
3
Properties=species:S:1:pos:R:3:force:R:3 OH1=0.7999999999999998 OH2=1.0999999999999999 HOH=130.0 dipole="0.09040105764280876 0.2983478919548541 0.0" energy=0.0642316471 pbc="F F F"
O        0.00000000       0.00000000       0.00000000       0.34856500      -0.12996100       0.00000000
H       -0.72504623       0.33809461       0.00000000      -0.24166300       0.15154900       0.00000000
H        0.99693857       0.46488009       0.00000000      -0.10690200      -0.02158780       0.00000000
3
Properties=species:S:1:pos:R:3:force:R:3 OH1=0.7999999999999999 OH2=1.0999999999999999 HOH=140.0 dipole="0.10838164173410775 0.2526851311604323 0.0" energy=0.0743340864 pbc="F F F"
O        0.00000000       0.00000000       0.00000000       0.36323000      -0.12354800       0.00000000
H       -0.75175410       0.27361611       0.00000000      -0.24945800       0.13373200       0.00000000
H        1.03366188       0.37622216       0.00000000      -0.11377200      -0.01018340       0.00000000
3
Properties=species:S:1:pos:R:3:force:R:3 OH1=0.7999999999999999 OH2=1.1 HOH=150.0 dipole="0.12774028240551666 0.1999649831698804 0.0" energy=0.0849995004 pbc="F F F"
O        0.00000000       0.00000000       0.00000000       0.37616000      -0.10767600       0.00000000
H       -0.77274066       0.20705524       0.00000000      -0.25764500       0.10979100       0.00000000
H        1.06251841       0.28470095       0.00000000      -0.11851500      -0.00211538       0.00000000
3
Properties=species:S:1:pos:R:3:force:R:3 OH1=0.7999999999999999 OH2=1.0999999999999999 HOH=160.0 dipole="0.14643081820462805 0.1394616056696892 0.0" energy=0.0945324079 pbc="F F F"
O        0.00000000       0.00000000       0.00000000       0.38679000      -0.08085380       0.00000000
H       -0.78784620       0.13891854       0.00000000      -0.26494300       0.07891890       0.00000000
H        1.08328853       0.19101300       0.00000000      -0.12184700       0.00193495       0.00000000
3
Properties=species:S:1:pos:R:3:force:R:3 OH1=0.85 OH2=1.0499999999999998 HOH=60.0 dipole="-0.0011945092381651368 0.49522678490248406 0.0" energy=0.0822324581 pbc="F F F"
O        0.00000000       0.00000000       0.00000000       0.12670000      -0.05861190       0.00000000
H       -0.42500000       0.73612159       0.00000000      -0.19512000       0.11809200       0.00000000
H        0.52500000       0.90932667       0.00000000       0.06841930      -0.05948020       0.00000000
3
Properties=species:S:1:pos:R:3:force:R:3 OH1=0.85 OH2=1.0499999999999998 HOH=70.0 dipole="0.004616782143489373 0.4755949762478926 0.0" energy=0.0561769993 pbc="F F F"
O        0.00000000       0.00000000       0.00000000       0.14077400      -0.04410530       0.00000000
H       -0.48753997       0.69627924       0.00000000      -0.17127500       0.10973000       0.00000000
H        0.60225526       0.86010965       0.00000000       0.03050060      -0.06562520       0.00000000
3
Properties=species:S:1:pos:R:3:force:R:3 OH1=0.8499999999999999 OH2=1.0499999999999998 HOH=80.0 dipole="0.01079994189434208 0.45322875521793393 0.0" energy=0.0382484117 pbc="F F F"
O        0.00000000       0.00000000       0.00000000       0.15466400      -0.03975860       0.00000000
H       -0.54636947       0.65113778       0.00000000      -0.15444000       0.10445900       0.00000000
H        0.67492699       0.80434667       0.00000000      -0.00022399      -0.06470080       0.00000000
3
Properties=species:S:1:pos:R:3:force:R:3 OH1=0.85 OH2=1.0499999999999998 HOH=90.0 dipole="0.01846596107067497 0.42870886210022946 0.0" energy=0.0271662664 pbc="F F F"
O        0.00000000       0.00000000       0.00000000       0.16799900      -0.04327560       0.00000000
H       -0.60104076       0.60104076       0.00000000      -0.14185000       0.10182500       0.00000000
H        0.74246212       0.74246212       0.00000000      -0.02614900      -0.05854970       0.00000000
3
Properties=species:S:1:pos:R:3:force:R:3 OH1=0.85 OH2=1.0499999999999998 HOH=100.0 dipole="0.02790150330479199 0.40166011764075565 0.0" energy=0.0221196187 pbc="F F F"
O        0.00000000       0.00000000       0.00000000       0.18068400      -0.05230020       0.00000000
H       -0.65113778       0.54636947       0.00000000      -0.13296100       0.10094400       0.00000000
H        0.80434667       0.67492699       0.00000000      -0.04772340      -0.04864420       0.00000000
3
Properties=species:S:1:pos:R:3:force:R:3 OH1=0.85 OH2=1.0499999999999998 HOH=110.0 dipole="0.03847218057546606 0.37117460791376033 0.0" energy=0.022325934 pbc="F F F"
O        0.00000000       0.00000000       0.00000000       0.19255400      -0.06407710       0.00000000
H       -0.69627924       0.48753997       0.00000000      -0.12769600       0.10050900       0.00000000
H        0.86010965       0.60225526       0.00000000      -0.06485770      -0.03643190       0.00000000
3
Properties=species:S:1:pos:R:3:force:R:3 OH1=0.8500000000000001 OH2=1.0499999999999998 HOH=120.0 dipole="0.04942390894669779 0.33634599795429776 0.0" energy=0.0269064412 pbc="F F F"
O        0.00000000       0.00000000       0.00000000       0.20343400      -0.07566040       0.00000000
H       -0.73612159       0.42500000       0.00000000      -0.12569400       0.09908160       0.00000000
H        0.90932667       0.52500000       0.00000000      -0.07774060      -0.02342120       0.00000000
3
Properties=species:S:1:pos:R:3:force:R:3 OH1=0.85 OH2=1.0499999999999998 HOH=130.0 dipole="0.06066664646806763 0.2964146336322959 0.0" energy=0.0348276843 pbc="F F F"
O        0.00000000       0.00000000       0.00000000       0.21342900      -0.08392800       0.00000000
H       -0.77036162       0.35922552       0.00000000      -0.12658800       0.09516770       0.00000000
H        0.95162318       0.44374917       0.00000000      -0.08684190      -0.01123970       0.00000000
3
Properties=species:S:1:pos:R:3:force:R:3 OH1=0.85 OH2=1.0499999999999998 HOH=140.0 dipole="0.07267582978691306 0.2505523868565353 0.0" energy=0.0448130272 pbc="F F F"
O        0.00000000       0.00000000       0.00000000       0.22252500      -0.08567000       0.00000000
H       -0.79873873       0.29071712       0.00000000      -0.12967800       0.08713460       0.00000000
H        0.98667725       0.35912115       0.00000000      -0.09284720      -0.00146461       0.00000000
3
Properties=species:S:1:pos:R:3:force:R:3 OH1=0.85 OH2=1.0499999999999998 HOH=150.0 dipole="0.08551414008616465 0.1978069246296051 0.0" energy=0.0553419014 pbc="F F F"
O        0.00000000       0.00000000       0.00000000       0.23055100      -0.07839560       0.00000000
H       -0.82103695       0.21999619       0.00000000      -0.13389500       0.07368680       0.00000000
H        1.01422212       0.27176000       0.00000000      -0.09665630       0.00470887       0.00000000
3
Properties=species:S:1:pos:R:3:force:R:3 OH1=0.85 OH2=1.0499999999999996 HOH=160.0 dipole="0.09787113684610965 0.13763542278908422 0.0" energy=0.0647196465 pbc="F F F"
O        0.00000000       0.00000000       0.00000000       0.23721800      -0.06071670       0.00000000
H       -0.83708659       0.14760095       0.00000000      -0.13813000       0.05410560       0.00000000
H        1.03404814       0.18233059       0.00000000      -0.09908790       0.00661110       0.00000000
3
Properties=species:S:1:pos:R:3:force:R:3 OH1=0.8999999999999999 OH2=1.0 HOH=60.0 dipole="-0.0003937352691518181 0.4948774551724572 0.0" energy=0.0672868645 pbc="F F F"
O        0.00000000       0.00000000       0.00000000       0.06031630      -0.00900929       0.00000000
H       -0.45000000       0.77942286       0.00000000      -0.14932000       0.04611430       0.00000000
H        0.50000000       0.86602540       0.00000000       0.08900340      -0.03710500       0.00000000
3
Properties=species:S:1:pos:R:3:force:R:3 OH1=0.9 OH2=0.9999999999999999 HOH=70.0 dipole="0.002401232391801178 0.4755084035845443 0.0" energy=0.0407049042 pbc="F F F"
O        0.00000000       0.00000000       0.00000000       0.06691000       0.00328007       0.00000000
H       -0.51621879       0.73723684       0.00000000      -0.11859900       0.03965240       0.00000000
H        0.57357644       0.81915204       0.00000000       0.05168930      -0.04293250       0.00000000
3
Properties=species:S:1:pos:R:3:force:R:3 OH1=0.8999999999999998 OH2=0.9999999999999999 HOH=80.0 dipole="0.005397897816287078 0.4530990634666677 0.0" energy=0.0224474027 pbc="F F F"
O        0.00000000       0.00000000       0.00000000       0.07342350       0.00506677       0.00000000
H       -0.57850885       0.68944000       0.00000000      -0.09563470       0.03738870       0.00000000
H        0.64278761       0.76604444       0.00000000       0.02221130      -0.04245550       0.00000000
3
Properties=species:S:1:pos:R:3:force:R:3 OH1=0.8999999999999999 OH2=1.0 HOH=90.0 dipole="0.009185900381559614 0.42833806888604287 0.0" energy=0.0111372495 pbc="F F F"
O        0.00000000       0.00000000       0.00000000       0.07970220      -0.00155446       0.00000000
H       -0.63639610       0.63639610       0.00000000      -0.07741990       0.03869190       0.00000000
H        0.70710678       0.70710678       0.00000000      -0.00228230      -0.03713750       0.00000000
3
Properties=species:S:1:pos:R:3:force:R:3 OH1=0.8999999999999999 OH2=1.0 HOH=100.0 dipole="0.013917702068497517 0.40100260761933404 0.0" energy=0.00591972195 pbc="F F F"
O        0.00000000       0.00000000       0.00000000       0.08571100      -0.01408820       0.00000000
H       -0.68944000       0.57850885       0.00000000      -0.06334300       0.04247010       0.00000000
H        0.76604444       0.64278761       0.00000000      -0.02236800      -0.02838190       0.00000000
3
Properties=species:S:1:pos:R:3:force:R:3 OH1=0.9 OH2=1.0 HOH=110.0 dipole="0.01925757355149854 0.37028210539416884 0.0" energy=0.006003279 pbc="F F F"
O        0.00000000       0.00000000       0.00000000       0.09133430      -0.02974520       0.00000000
H       -0.73723684       0.51621879       0.00000000      -0.05324210       0.04735270       0.00000000
H        0.81915204       0.57357644       0.00000000      -0.03809220      -0.01760750       0.00000000
3
Properties=species:S:1:pos:R:3:force:R:3 OH1=0.8999999999999999 OH2=1.0 HOH=120.0 dipole="0.024794978718501892 0.33527700201648136 0.0" energy=0.0105005605 pbc="F F F"
O        0.00000000       0.00000000       0.00000000       0.09650630      -0.04546250       0.00000000
H       -0.77942286       0.45000000       0.00000000      -0.04689170       0.05182800       0.00000000
H        0.86602540       0.50000000       0.00000000      -0.04961470      -0.00636549       0.00000000
3
Properties=species:S:1:pos:R:3:force:R:3 OH1=0.8999999999999999 OH2=1.0 HOH=130.0 dipole="0.030455422643601848 0.2951930920766932 0.0" energy=0.0183505426 pbc="F F F"
O        0.00000000       0.00000000       0.00000000       0.10129100      -0.05805460       0.00000000
H       -0.81567701       0.38035644       0.00000000      -0.04389760       0.05433710       0.00000000
H        0.90630779       0.42261826       0.00000000      -0.05739350       0.00371750       0.00000000
3
Properties=species:S:1:pos:R:3:force:R:3 OH1=0.8999999999999998 OH2=0.9999999999999999 HOH=140.0 dipole="0.03646450394968548 0.249208154161042 0.0" energy=0.0282637582 pbc="F F F"
O        0.00000000       0.00000000       0.00000000       0.10564800      -0.06438920       0.00000000
H       -0.84572336       0.30781813       0.00000000      -0.04352690       0.05329350       0.00000000
H        0.93969262       0.34202014       0.00000000      -0.06212090       0.01109570       0.00000000
3
Properties=species:S:1:pos:R:3:force:R:3 OH1=0.9 OH2=1.0 HOH=150.0 dipole="0.04286011220601044 0.1964519536591362 0.0" energy=0.0387121079 pbc="F F F"
O        0.00000000       0.00000000       0.00000000       0.10949600      -0.06193670       0.00000000
H       -0.86933324       0.23293714       0.00000000      -0.04481060       0.04740810       0.00000000
H        0.96592583       0.25881905       0.00000000      -0.06468560       0.01452860       0.00000000
3
Properties=species:S:1:pos:R:3:force:R:3 OH1=0.8999999999999998 OH2=0.9999999999999999 HOH=160.0 dipole="0.04900402886558741 0.13649237523418373 0.0" energy=0.0479963258 pbc="F F F"
O        0.00000000       0.00000000       0.00000000       0.11271700      -0.04937750       0.00000000
H       -0.88632698       0.15628336       0.00000000      -0.04672550       0.03601510       0.00000000
H        0.98480775       0.17364818       0.00000000      -0.06599190       0.01336240       0.00000000
3
Properties=species:S:1:pos:R:3:force:R:3 OH1=0.9500000000000001 OH2=0.9500000000000001 HOH=60.0 dipole="0.0 0.4947165974986304 0.0" energy=0.0625030657 pbc="F F F"
O        0.00000000       0.00000000       0.00000000       0.00000000       0.00694243       0.00000000
H       -0.47500000       0.82272413       0.00000000      -0.11516200      -0.00347122       0.00000000
H        0.47500000       0.82272413       0.00000000       0.11516200      -0.00347122       0.00000000
3
Properties=species:S:1:pos:R:3:force:R:3 OH1=0.95 OH2=0.95 HOH=70.0 dipole="-2.7755575615628914e-17 0.4754596852408035 0.0" energy=0.0357400746 pbc="F F F"
O        0.00000000       0.00000000       0.00000000      -0.00000000       0.01852210       0.00000000
H       -0.54489761       0.77819444       0.00000000      -0.08009520      -0.00926105       0.00000000
H        0.54489761       0.77819444       0.00000000       0.08009520      -0.00926105       0.00000000
3
Properties=species:S:1:pos:R:3:force:R:3 OH1=0.95 OH2=0.95 HOH=80.0 dipole="-2.7755575615628914e-17 0.4530493528824643 0.0" energy=0.017372091 pbc="F F F"
O        0.00000000       0.00000000       0.00000000      -0.00000000       0.01949020       0.00000000
H       -0.61064823       0.72774222       0.00000000      -0.05307760      -0.00974509       0.00000000
H        0.61064823       0.72774222       0.00000000       0.05307760      -0.00974509       0.00000000
3
Properties=species:S:1:pos:R:3:force:R:3 OH1=0.95 OH2=0.95 HOH=90.0 dipole="0.0 0.4282123479196961 0.0" energy=0.00598532131 pbc="F F F"
O        0.00000000       0.00000000       0.00000000       0.00000000       0.01188030       0.00000000
H       -0.67175144       0.67175144       0.00000000      -0.03104720      -0.00594013       0.00000000
H        0.67175144       0.67175144       0.00000000       0.03104720      -0.00594013       0.00000000
3
Properties=species:S:1:pos:R:3:force:R:3 OH1=0.9500000000000001 OH2=0.9500000000000001 HOH=100.0 dipole="0.0 0.40078026491080465 0.0" energy=0.000709664591 pbc="F F F"
O        0.00000000       0.00000000       0.00000000       0.00000000      -0.00177867       0.00000000
H       -0.72774222       0.61064823       0.00000000      -0.01336780       0.00088934       0.00000000
H        0.72774222       0.61064823       0.00000000       0.01336780       0.00088934       0.00000000
3
Properties=species:S:1:pos:R:3:force:R:3 OH1=0.95 OH2=0.95 HOH=110.0 dipole="2.0539125955565396e-15 0.36997841064090276 0.0" energy=0.000751703278 pbc="F F F"
O        0.00000000       0.00000000       0.00000000       0.00000000      -0.01868490       0.00000000
H       -0.77819444       0.54489761       0.00000000       0.00009938       0.00934246       0.00000000
H        0.77819444       0.54489761       0.00000000      -0.00009938       0.00934246       0.00000000
3
Properties=species:S:1:pos:R:3:force:R:3 OH1=0.95 OH2=0.95 HOH=120.0 dipole="2.275957200481571e-15 0.33491168234727486 0.0" energy=0.0052205685 pbc="F F F"
O        0.00000000       0.00000000       0.00000000       0.00000000      -0.03572770       0.00000000
H       -0.82272413       0.47500000       0.00000000       0.00951710       0.01786390       0.00000000
H        0.82272413       0.47500000       0.00000000      -0.00951710       0.01786390       0.00000000
3